<?xml version="1.0" encoding="UTF-8"?>

<!-- generated on 2024-05-30 20:44:55 by Eclipse SUMO sumo Version 1.20.0
<configuration xmlns:xsi="http://www.w3.org/2001/XMLSchema-instance" xsi:noNamespaceSchemaLocation="http://sumo.dlr.de/xsd/sumoConfiguration.xsd">

    <input>
        <net-file value="map.net.xml"/>
        <route-files value="map.rou.xml"/>
    </input>

    <output>
        <fcd-output value="fcdd_output.xml"/>
    </output>

    <time>
        <begin value="0"/>
        <end value="1000"/>
    </time>

</configuration>
-->

<fcd-export xmlns:xsi="http://www.w3.org/2001/XMLSchema-instance" xsi:noNamespaceSchemaLocation="http://sumo.dlr.de/xsd/fcd_file.xsd">
    <timestep time="0.00">
        <vehicle id="0" x="1567.69" y="3868.63" angle="72.28" type="DEFAULT_VEHTYPE" speed="0.00" pos="5.10" lane="321434796#0_0" slope="0.00"/>
    </timestep>
    <timestep time="1.00">
        <vehicle id="0" x="1569.58" y="3869.24" angle="72.28" type="DEFAULT_VEHTYPE" speed="1.99" pos="7.09" lane="321434796#0_0" slope="0.00"/>
        <vehicle id="1" x="1686.51" y="4130.46" angle="88.79" type="DEFAULT_VEHTYPE" speed="0.00" pos="5.10" lane="-399725118#0_0" slope="0.00"/>
    </timestep>
    <timestep time="2.00">
        <vehicle id="0" x="1572.90" y="3870.30" angle="72.28" type="DEFAULT_VEHTYPE" speed="3.48" pos="10.57" lane="321434796#0_0" slope="0.00"/>
        <vehicle id="1" x="1687.83" y="4130.49" angle="88.79" type="DEFAULT_VEHTYPE" speed="1.32" pos="6.42" lane="-399725118#0_0" slope="0.00"/>
        <vehicle id="2" x="2053.83" y="3572.16" angle="69.23" type="DEFAULT_VEHTYPE" speed="0.00" pos="5.10" lane="370526836_0" slope="0.00"/>
    </timestep>
    <timestep time="3.00">
        <vehicle id="0" x="1578.13" y="3871.97" angle="72.28" type="DEFAULT_VEHTYPE" speed="5.49" pos="16.06" lane="321434796#0_0" slope="0.00"/>
        <vehicle id="1" x="1691.02" y="4130.55" angle="88.79" type="DEFAULT_VEHTYPE" speed="3.20" pos="9.62" lane="-399725118#0_0" slope="0.00"/>
        <vehicle id="2" x="2055.14" y="3572.65" angle="69.23" type="DEFAULT_VEHTYPE" speed="1.40" pos="6.50" lane="370526836_0" slope="0.00"/>
        <vehicle id="3" x="2245.20" y="4515.97" angle="34.83" type="DEFAULT_VEHTYPE" speed="0.00" pos="5.10" lane="399732919#1_0" slope="0.00"/>
    </timestep>
    <timestep time="4.00">
        <vehicle id="0" x="1584.77" y="3874.09" angle="72.28" type="DEFAULT_VEHTYPE" speed="6.97" pos="23.03" lane="321434796#0_0" slope="0.00"/>
        <vehicle id="1" x="1696.20" y="4131.11" angle="83.63" type="DEFAULT_VEHTYPE" speed="5.22" pos="14.84" lane="-399725118#0_0" slope="0.00"/>
        <vehicle id="2" x="2057.24" y="3573.45" angle="69.23" type="DEFAULT_VEHTYPE" speed="2.25" pos="8.75" lane="370526836_0" slope="0.00"/>
        <vehicle id="3" x="2246.13" y="4517.30" angle="34.83" type="DEFAULT_VEHTYPE" speed="1.63" pos="6.73" lane="399732919#1_0" slope="0.00"/>
        <vehicle id="4" x="1527.99" y="4497.07" angle="95.33" type="DEFAULT_VEHTYPE" speed="0.00" pos="5.10" lane="-399736151#1_0" slope="0.00"/>
    </timestep>
    <timestep time="5.00">
        <vehicle id="0" x="1592.77" y="3876.54" angle="73.16" type="DEFAULT_VEHTYPE" speed="8.37" pos="31.41" lane="321434796#0_0" slope="0.00"/>
        <vehicle id="1" x="1703.00" y="4132.28" angle="80.23" type="DEFAULT_VEHTYPE" speed="6.90" pos="21.74" lane="-399725118#0_0" slope="0.00"/>
        <vehicle id="2" x="2058.97" y="3574.11" angle="69.23" type="DEFAULT_VEHTYPE" speed="1.85" pos="10.60" lane="370526836_0" slope="0.00"/>
        <vehicle id="3" x="2248.00" y="4519.99" angle="34.83" type="DEFAULT_VEHTYPE" speed="3.27" pos="10.00" lane="399732919#1_0" slope="0.00"/>
        <vehicle id="4" x="1530.27" y="4496.85" angle="95.33" type="DEFAULT_VEHTYPE" speed="2.29" pos="7.39" lane="-399736151#1_0" slope="0.00"/>
        <vehicle id="5" x="2649.89" y="3619.06" angle="331.53" type="DEFAULT_VEHTYPE" speed="0.00" pos="5.10" lane="-370526839#0_0" slope="0.00"/>
    </timestep>
    <timestep time="6.00">
        <vehicle id="0" x="1602.56" y="3879.51" angle="73.16" type="DEFAULT_VEHTYPE" speed="10.23" pos="41.64" lane="321434796#0_0" slope="0.00"/>
        <vehicle id="1" x="1711.94" y="4133.82" angle="80.23" type="DEFAULT_VEHTYPE" speed="9.07" pos="30.81" lane="-399725118#0_0" slope="0.00"/>
        <vehicle id="2" x="2061.18" y="3574.95" angle="69.23" type="DEFAULT_VEHTYPE" speed="2.36" pos="12.96" lane="370526836_0" slope="0.00"/>
        <vehicle id="3" x="2251.43" y="4523.58" angle="43.68" type="DEFAULT_VEHTYPE" speed="5.00" pos="15.00" lane="399732919#1_0" slope="0.00"/>
        <vehicle id="4" x="1535.02" y="4496.41" angle="95.33" type="DEFAULT_VEHTYPE" speed="4.77" pos="12.16" lane="-399736151#1_0" slope="0.00"/>
        <vehicle id="5" x="2648.59" y="3620.82" angle="327.17" type="DEFAULT_VEHTYPE" speed="2.18" pos="7.28" lane="-370526839#0_0" slope="0.00"/>
        <vehicle id="6" x="2284.53" y="3615.49" angle="341.02" type="DEFAULT_VEHTYPE" speed="0.00" pos="5.10" lane="-149723897#1_0" slope="0.00"/>
    </timestep>
    <timestep time="7.00">
        <vehicle id="0" x="1614.52" y="3883.13" angle="73.16" type="DEFAULT_VEHTYPE" speed="12.49" pos="54.12" lane="321434796#0_0" slope="0.00"/>
        <vehicle id="1" x="1722.63" y="4135.33" angle="83.91" type="DEFAULT_VEHTYPE" speed="10.80" pos="41.61" lane="-399725118#0_0" slope="0.00"/>
        <vehicle id="2" x="2063.60" y="3575.86" angle="69.23" type="DEFAULT_VEHTYPE" speed="2.59" pos="15.55" lane="370526836_0" slope="0.00"/>
        <vehicle id="3" x="2256.52" y="4528.04" angle="48.74" type="DEFAULT_VEHTYPE" speed="6.77" pos="21.76" lane="399732919#1_0" slope="0.00"/>
        <vehicle id="4" x="1541.95" y="4495.76" angle="95.33" type="DEFAULT_VEHTYPE" speed="6.96" pos="1.79" lane=":4024330560_3_0" slope="0.00"/>
        <vehicle id="5" x="2645.85" y="3624.54" angle="323.63" type="DEFAULT_VEHTYPE" speed="4.62" pos="11.90" lane="-370526839#0_0" slope="0.00"/>
        <vehicle id="6" x="2284.11" y="3616.73" angle="341.02" type="DEFAULT_VEHTYPE" speed="1.30" pos="6.40" lane="-149723897#1_0" slope="0.00"/>
        <vehicle id="7" x="1620.97" y="3622.78" angle="64.52" type="DEFAULT_VEHTYPE" speed="0.00" pos="5.10" lane="321434800#0_0" slope="0.00"/>
    </timestep>
    <timestep time="8.00">
        <vehicle id="0" x="1628.30" y="3887.30" angle="73.16" type="DEFAULT_VEHTYPE" speed="14.40" pos="68.52" lane="321434796#0_0" slope="0.00"/>
        <vehicle id="1" x="1735.30" y="4136.50" angle="84.74" type="DEFAULT_VEHTYPE" speed="12.72" pos="54.33" lane="-399725118#0_0" slope="0.00"/>
        <vehicle id="2" x="2065.39" y="3576.54" angle="69.23" type="DEFAULT_VEHTYPE" speed="1.92" pos="17.47" lane="370526836_0" slope="0.00"/>
        <vehicle id="3" x="2263.18" y="4533.69" angle="50.42" type="DEFAULT_VEHTYPE" speed="8.75" pos="30.51" lane="399732919#1_0" slope="0.00"/>
        <vehicle id="4" x="1550.59" y="4494.96" angle="95.33" type="DEFAULT_VEHTYPE" speed="8.67" pos="10.46" lane=":4024330560_3_0" slope="0.00"/>
        <vehicle id="5" x="2641.82" y="3630.01" angle="323.63" type="DEFAULT_VEHTYPE" speed="6.80" pos="18.70" lane="-370526839#0_0" slope="0.00"/>
        <vehicle id="6" x="2283.14" y="3619.53" angle="341.02" type="DEFAULT_VEHTYPE" speed="2.96" pos="9.37" lane="-149723897#1_0" slope="0.00"/>
        <vehicle id="7" x="1622.97" y="3623.74" angle="64.52" type="DEFAULT_VEHTYPE" speed="2.22" pos="7.32" lane="321434800#0_0" slope="0.00"/>
        <vehicle id="8" x="2493.17" y="3335.20" angle="353.32" type="DEFAULT_VEHTYPE" speed="0.00" pos="5.10" lane="-370526839#3_0" slope="0.00"/>
    </timestep>
    <timestep time="9.00">
        <vehicle id="0" x="1641.32" y="3893.07" angle="60.41" type="DEFAULT_VEHTYPE" speed="14.30" pos="13.71" lane=":3281805765_7_0" slope="0.00"/>
        <vehicle id="1" x="1748.17" y="4137.69" angle="84.74" type="DEFAULT_VEHTYPE" speed="12.93" pos="67.26" lane="-399725118#0_0" slope="0.00"/>
        <vehicle id="2" x="2066.90" y="3577.12" angle="69.23" type="DEFAULT_VEHTYPE" speed="1.61" pos="19.08" lane="370526836_0" slope="0.00"/>
        <vehicle id="3" x="2272.56" y="4538.91" angle="60.91" type="DEFAULT_VEHTYPE" speed="10.74" pos="41.25" lane="399732919#1_0" slope="0.00"/>
        <vehicle id="4" x="1561.41" y="4493.95" angle="95.34" type="DEFAULT_VEHTYPE" speed="10.87" pos="6.90" lane="-399736151#0_0" slope="0.00"/>
        <vehicle id="5" x="2638.73" y="3634.21" angle="323.63" type="DEFAULT_VEHTYPE" speed="5.21" pos="23.91" lane="-370526839#0_0" slope="0.00"/>
        <vehicle id="6" x="2281.54" y="3624.19" angle="341.02" type="DEFAULT_VEHTYPE" speed="4.93" pos="14.30" lane="-149723897#1_0" slope="0.00"/>
        <vehicle id="7" x="1627.24" y="3625.77" angle="64.52" type="DEFAULT_VEHTYPE" speed="4.73" pos="12.05" lane="321434800#0_0" slope="0.00"/>
        <vehicle id="8" x="2492.98" y="3336.76" angle="353.32" type="DEFAULT_VEHTYPE" speed="1.58" pos="6.68" lane="-370526839#3_0" slope="0.00"/>
        <vehicle id="9" x="1920.59" y="4180.57" angle="6.86" type="DEFAULT_VEHTYPE" speed="0.00" pos="5.10" lane="399725120#0_0" slope="0.00"/>
    </timestep>
    <timestep time="10.00">
        <vehicle id="0" x="1653.38" y="3901.08" angle="56.33" type="DEFAULT_VEHTYPE" speed="14.48" pos="14.13" lane="321434796#1_0" slope="0.00"/>
        <vehicle id="1" x="1761.02" y="4139.68" angle="80.71" type="DEFAULT_VEHTYPE" speed="13.01" pos="80.26" lane="-399725118#0_0" slope="0.00"/>
        <vehicle id="10" x="1729.63" y="4276.97" angle="14.38" type="DEFAULT_VEHTYPE" speed="0.00" pos="5.10" lane="399723918#1_0" slope="0.00"/>
        <vehicle id="2" x="2069.44" y="3578.08" angle="69.23" type="DEFAULT_VEHTYPE" speed="2.72" pos="21.80" lane="370526836_0" slope="0.00"/>
        <vehicle id="3" x="2283.72" y="4544.49" angle="65.14" type="DEFAULT_VEHTYPE" speed="12.48" pos="53.73" lane="399732919#1_0" slope="0.00"/>
        <vehicle id="4" x="1574.01" y="4492.77" angle="95.34" type="DEFAULT_VEHTYPE" speed="12.66" pos="19.56" lane="-399736151#0_0" slope="0.00"/>
        <vehicle id="5" x="2634.75" y="3639.48" angle="322.68" type="DEFAULT_VEHTYPE" speed="6.61" pos="3.38" lane=":3742207867_4_0" slope="0.00"/>
        <vehicle id="6" x="2279.32" y="3630.66" angle="341.02" type="DEFAULT_VEHTYPE" speed="6.84" pos="21.14" lane="-149723897#1_0" slope="0.00"/>
        <vehicle id="7" x="1633.63" y="3628.81" angle="64.52" type="DEFAULT_VEHTYPE" speed="7.07" pos="19.12" lane="321434800#0_0" slope="0.00"/>
        <vehicle id="8" x="2492.52" y="3340.69" angle="353.32" type="DEFAULT_VEHTYPE" speed="3.96" pos="10.64" lane="-370526839#3_0" slope="0.00"/>
        <vehicle id="9" x="1920.84" y="4181.93" angle="10.34" type="DEFAULT_VEHTYPE" speed="1.38" pos="6.48" lane="399725120#0_0" slope="0.00"/>
    </timestep>
    <timestep time="11.00">
        <vehicle id="0" x="1665.46" y="3908.88" angle="58.77" type="DEFAULT_VEHTYPE" speed="14.39" pos="28.52" lane="321434796#1_0" slope="0.00"/>
        <vehicle id="1" x="1771.33" y="4141.37" angle="80.71" type="DEFAULT_VEHTYPE" speed="10.45" pos="90.71" lane="-399725118#0_0" slope="0.00"/>
        <vehicle id="10" x="1730.30" y="4278.83" angle="18.80" type="DEFAULT_VEHTYPE" speed="1.98" pos="7.08" lane="399723918#1_0" slope="0.00"/>
        <vehicle id="11" x="1865.08" y="4776.20" angle="276.56" type="DEFAULT_VEHTYPE" speed="0.00" pos="5.10" lane="-399728995#0_0" slope="0.00"/>
        <vehicle id="2" x="2072.01" y="3579.05" angle="69.23" type="DEFAULT_VEHTYPE" speed="2.74" pos="24.54" lane="370526836_0" slope="0.00"/>
        <vehicle id="3" x="2296.21" y="4550.28" angle="65.14" type="DEFAULT_VEHTYPE" speed="13.76" pos="67.50" lane="399732919#1_0" slope="0.00"/>
        <vehicle id="4" x="1586.32" y="4488.43" angle="125.01" type="DEFAULT_VEHTYPE" speed="13.82" pos="33.37" lane="-399736151#0_0" slope="0.00"/>
        <vehicle id="5" x="2628.14" y="3645.40" angle="306.88" type="DEFAULT_VEHTYPE" speed="8.93" pos="12.31" lane=":3742207867_4_0" slope="0.00"/>
        <vehicle id="6" x="2277.07" y="3637.19" angle="341.02" type="DEFAULT_VEHTYPE" speed="6.91" pos="28.04" lane="-149723897#1_0" slope="0.00"/>
        <vehicle id="7" x="1642.07" y="3632.84" angle="64.52" type="DEFAULT_VEHTYPE" speed="9.36" pos="28.47" lane="321434800#0_0" slope="0.00"/>
        <vehicle id="8" x="2491.87" y="3346.22" angle="353.32" type="DEFAULT_VEHTYPE" speed="5.57" pos="16.20" lane="-370526839#3_0" slope="0.00"/>
        <vehicle id="9" x="1921.39" y="4184.95" angle="10.34" type="DEFAULT_VEHTYPE" speed="3.07" pos="9.55" lane="399725120#0_0" slope="0.00"/>
    </timestep>
    <timestep time="12.00">
        <vehicle id="0" x="1677.67" y="3915.95" angle="60.74" type="DEFAULT_VEHTYPE" speed="14.11" pos="2.15" lane=":3281805791_3_0" slope="0.00"/>
        <vehicle id="1" x="1777.74" y="4141.76" angle="88.17" type="DEFAULT_VEHTYPE" speed="6.44" pos="97.15" lane="-399725118#0_0" slope="0.00"/>
        <vehicle id="10" x="1731.70" y="4282.78" angle="19.62" type="DEFAULT_VEHTYPE" speed="4.19" pos="11.27" lane="399723918#1_0" slope="0.00"/>
        <vehicle id="11" x="1862.50" y="4776.50" angle="276.56" type="DEFAULT_VEHTYPE" speed="2.60" pos="7.70" lane="-399728995#0_0" slope="0.00"/>
        <vehicle id="12" x="1567.77" y="4447.04" angle="284.86" type="DEFAULT_VEHTYPE" speed="0.00" pos="5.10" lane="399736150#2_0" slope="0.00"/>
        <vehicle id="2" x="2074.31" y="3579.93" angle="69.23" type="DEFAULT_VEHTYPE" speed="2.47" pos="27.01" lane="370526836_0" slope="0.00"/>
        <vehicle id="3" x="2305.54" y="4556.79" angle="53.18" type="DEFAULT_VEHTYPE" speed="11.41" pos="78.91" lane="399732919#1_0" slope="0.00"/>
        <vehicle id="4" x="1587.93" y="4475.73" angle="183.91" type="DEFAULT_VEHTYPE" speed="13.14" pos="46.51" lane="-399736151#0_0" slope="0.00"/>
        <vehicle id="5" x="2617.55" y="3649.54" angle="289.68" type="DEFAULT_VEHTYPE" speed="11.39" pos="8.80" lane="-399723463#10_0" slope="0.00"/>
        <vehicle id="6" x="2274.77" y="3645.31" angle="346.08" type="DEFAULT_VEHTYPE" speed="8.45" pos="5.68" lane=":1626737391_3_0" slope="0.00"/>
        <vehicle id="7" x="1652.79" y="3637.46" angle="69.53" type="DEFAULT_VEHTYPE" speed="11.69" pos="40.16" lane="321434800#0_0" slope="0.00"/>
        <vehicle id="8" x="2487.72" y="3352.70" angle="323.30" type="DEFAULT_VEHTYPE" speed="7.82" pos="24.02" lane="-370526839#3_0" slope="0.00"/>
        <vehicle id="9" x="1922.25" y="4189.65" angle="10.34" type="DEFAULT_VEHTYPE" speed="4.79" pos="14.34" lane="399725120#0_0" slope="0.00"/>
    </timestep>
    <timestep time="13.00">
        <vehicle id="0" x="1690.96" y="3921.09" angle="70.57" type="DEFAULT_VEHTYPE" speed="14.27" pos="1.66" lane="321434796#2_0" slope="0.00"/>
        <vehicle id="1" x="1781.84" y="4141.80" angle="89.37" type="DEFAULT_VEHTYPE" speed="4.09" pos="0.42" lane=":3278391977_15_0" slope="0.00"/>
        <vehicle id="10" x="1733.55" y="4287.97" angle="19.62" type="DEFAULT_VEHTYPE" speed="5.52" pos="16.79" lane="399723918#1_0" slope="0.00"/>
        <vehicle id="11" x="1857.74" y="4777.05" angle="276.56" type="DEFAULT_VEHTYPE" speed="4.79" pos="12.49" lane="-399728995#0_0" slope="0.00"/>
        <vehicle id="12" x="1566.16" y="4447.46" angle="284.86" type="DEFAULT_VEHTYPE" speed="1.67" pos="6.77" lane="399736150#2_0" slope="0.00"/>
        <vehicle id="13" x="1875.67" y="4652.94" angle="308.06" type="DEFAULT_VEHTYPE" speed="0.00" pos="5.10" lane="-321121533#4_0" slope="0.00"/>
        <vehicle id="2" x="2076.11" y="3580.61" angle="69.23" type="DEFAULT_VEHTYPE" speed="1.92" pos="28.93" lane="370526836_0" slope="0.00"/>
        <vehicle id="3" x="2311.24" y="4561.06" angle="53.18" type="DEFAULT_VEHTYPE" speed="7.12" pos="86.03" lane="399732919#1_0" slope="0.00"/>
        <vehicle id="4" x="1586.26" y="4461.82" angle="186.85" type="DEFAULT_VEHTYPE" speed="14.01" pos="60.52" lane="-399736151#0_0" slope="0.00"/>
        <vehicle id="5" x="2604.77" y="3654.25" angle="290.59" type="DEFAULT_VEHTYPE" speed="13.62" pos="22.41" lane="-399723463#10_0" slope="0.00"/>
        <vehicle id="6" x="2274.44" y="3656.15" angle="0.64" type="DEFAULT_VEHTYPE" speed="10.86" pos="3.72" lane="-149723897#0_0" slope="0.00"/>
        <vehicle id="7" x="1663.60" y="3641.45" angle="69.76" type="DEFAULT_VEHTYPE" speed="11.52" pos="51.68" lane="321434800#0_0" slope="0.00"/>
        <vehicle id="8" x="2481.72" y="3360.74" angle="323.30" type="DEFAULT_VEHTYPE" speed="10.03" pos="34.05" lane="-370526839#3_0" slope="0.00"/>
        <vehicle id="9" x="1923.10" y="4196.26" angle="6.33" type="DEFAULT_VEHTYPE" speed="6.67" pos="21.01" lane="399725120#0_0" slope="0.00"/>
    </timestep>
    <timestep time="14.00">
        <vehicle id="0" x="1701.73" y="3928.98" angle="45.14" type="DEFAULT_VEHTYPE" speed="13.46" pos="15.13" lane="321434796#2_0" slope="0.00"/>
        <vehicle id="1" x="1785.79" y="4141.21" angle="97.15" type="DEFAULT_VEHTYPE" speed="4.06" pos="4.48" lane=":3278391977_15_0" slope="0.00"/>
        <vehicle id="10" x="1735.76" y="4294.18" angle="19.62" type="DEFAULT_VEHTYPE" speed="6.59" pos="23.38" lane="399723918#1_0" slope="0.00"/>
        <vehicle id="11" x="1851.31" y="4777.79" angle="276.56" type="DEFAULT_VEHTYPE" speed="6.47" pos="18.96" lane="-399728995#0_0" slope="0.00"/>
        <vehicle id="12" x="1562.72" y="4448.38" angle="284.86" type="DEFAULT_VEHTYPE" speed="3.56" pos="10.32" lane="399736150#2_0" slope="0.00"/>
        <vehicle id="13" x="1874.18" y="4654.10" angle="308.06" type="DEFAULT_VEHTYPE" speed="1.89" pos="6.99" lane="-321121533#4_0" slope="0.00"/>
        <vehicle id="14" x="1993.96" y="4769.29" angle="158.52" type="DEFAULT_VEHTYPE" speed="0.00" pos="0.13" lane="399726598_0" slope="0.00"/>
        <vehicle id="2" x="2078.30" y="3581.44" angle="69.23" type="DEFAULT_VEHTYPE" speed="2.35" pos="31.28" lane="370526836_0" slope="0.00"/>
        <vehicle id="3" x="2312.43" y="4563.59" angle="36.24" type="DEFAULT_VEHTYPE" speed="3.17" pos="0.10" lane=":4024300778_11_0" slope="0.00"/>
        <vehicle id="4" x="1581.78" y="4449.76" angle="211.20" type="DEFAULT_VEHTYPE" speed="13.16" pos="73.68" lane="-399736151#0_0" slope="0.00"/>
        <vehicle id="5" x="2590.50" y="3659.61" angle="290.59" type="DEFAULT_VEHTYPE" speed="15.24" pos="37.65" lane="-399723463#10_0" slope="0.00"/>
        <vehicle id="6" x="2275.42" y="3662.28" angle="11.29" type="DEFAULT_VEHTYPE" speed="6.36" pos="10.08" lane="-149723897#0_0" slope="0.00"/>
        <vehicle id="7" x="1673.99" y="3645.28" angle="69.76" type="DEFAULT_VEHTYPE" speed="11.07" pos="62.75" lane="321434800#0_0" slope="0.00"/>
        <vehicle id="8" x="2474.45" y="3370.50" angle="323.30" type="DEFAULT_VEHTYPE" speed="12.17" pos="46.22" lane="-370526839#3_0" slope="0.00"/>
        <vehicle id="9" x="1923.72" y="4204.33" angle="4.34" type="DEFAULT_VEHTYPE" speed="8.09" pos="29.10" lane="399725120#0_0" slope="0.00"/>
    </timestep>
    <timestep time="15.00">
        <vehicle id="0" x="1712.39" y="3937.84" angle="59.61" type="DEFAULT_VEHTYPE" speed="14.01" pos="4.68" lane=":3281805770_6_0" slope="0.00"/>
        <vehicle id="1" x="1785.25" y="4137.74" angle="183.49" type="DEFAULT_VEHTYPE" speed="4.63" pos="9.11" lane=":3278391977_15_0" slope="0.00"/>
        <vehicle id="10" x="1737.83" y="4301.65" angle="13.11" type="DEFAULT_VEHTYPE" speed="7.77" pos="4.00" lane=":3278416285_4_0" slope="0.00"/>
        <vehicle id="11" x="1843.15" y="4778.73" angle="276.56" type="DEFAULT_VEHTYPE" speed="8.22" pos="27.18" lane="-399728995#0_0" slope="0.00"/>
        <vehicle id="12" x="1557.50" y="4449.76" angle="284.86" type="DEFAULT_VEHTYPE" speed="5.41" pos="15.73" lane="399736150#2_0" slope="0.00"/>
        <vehicle id="13" x="1870.86" y="4656.72" angle="308.19" type="DEFAULT_VEHTYPE" speed="4.23" pos="1.51" lane=":3278391929_0_0" slope="0.00"/>
        <vehicle id="14" x="1995.42" y="4769.73" angle="124.69" type="DEFAULT_VEHTYPE" speed="1.54" pos="0.78" lane=":4024231087_5_0" slope="0.00"/>
        <vehicle id="15" x="1661.69" y="4135.59" angle="280.25" type="DEFAULT_VEHTYPE" speed="0.00" pos="5.10" lane="399725118#1_0" slope="0.00"/>
        <vehicle id="2" x="2080.05" y="3582.10" angle="69.23" type="DEFAULT_VEHTYPE" speed="1.87" pos="33.15" lane="370526836_0" slope="0.00"/>
        <vehicle id="3" x="2309.56" y="4563.81" angle="301.10" type="DEFAULT_VEHTYPE" speed="3.44" pos="0.12" lane="-399732919#1_0" slope="0.00"/>
        <vehicle id="4" x="1573.88" y="4438.56" angle="218.53" type="DEFAULT_VEHTYPE" speed="13.72" pos="11.78" lane=":4024330553_1_0" slope="0.00"/>
        <vehicle id="5" x="2574.10" y="3665.77" angle="290.59" type="DEFAULT_VEHTYPE" speed="17.53" pos="55.18" lane="-399723463#10_0" slope="0.00"/>
        <vehicle id="6" x="2278.00" y="3669.93" angle="12.67" type="DEFAULT_VEHTYPE" speed="8.23" pos="5.50" lane=":1626737488_4_0" slope="0.00"/>
        <vehicle id="7" x="1684.73" y="3649.24" angle="69.76" type="DEFAULT_VEHTYPE" speed="11.45" pos="74.20" lane="321434800#0_0" slope="0.00"/>
        <vehicle id="8" x="2468.25" y="3380.76" angle="329.12" type="DEFAULT_VEHTYPE" speed="11.99" pos="58.21" lane="-370526839#3_0" slope="0.00"/>
        <vehicle id="9" x="1924.41" y="4213.50" angle="4.34" type="DEFAULT_VEHTYPE" speed="9.20" pos="38.30" lane="399725120#0_0" slope="0.00"/>
    </timestep>
    <timestep time="16.00">
        <vehicle id="0" x="1725.74" y="3939.38" angle="87.65" type="DEFAULT_VEHTYPE" speed="13.50" pos="2.03" lane="399723461_0" slope="0.00"/>
        <vehicle id="1" x="1781.47" y="4134.57" angle="229.90" type="DEFAULT_VEHTYPE" speed="4.94" pos="2.72" lane=":3278391978_0_0" slope="0.00"/>
        <vehicle id="10" x="1733.75" y="4308.41" angle="315.28" type="DEFAULT_VEHTYPE" speed="8.34" pos="12.35" lane=":3278416285_4_0" slope="0.00"/>
        <vehicle id="11" x="1833.28" y="4779.86" angle="276.56" type="DEFAULT_VEHTYPE" speed="9.93" pos="37.11" lane="-399728995#0_0" slope="0.00"/>
        <vehicle id="12" x="1550.85" y="4451.53" angle="284.86" type="DEFAULT_VEHTYPE" speed="6.88" pos="22.61" lane="399736150#2_0" slope="0.00"/>
        <vehicle id="13" x="1865.87" y="4660.68" angle="308.49" type="DEFAULT_VEHTYPE" speed="6.37" pos="7.88" lane=":3278391929_0_0" slope="0.00"/>
        <vehicle id="14" x="1994.50" y="4772.38" angle="7.22" type="DEFAULT_VEHTYPE" speed="3.62" pos="0.36" lane=":4024231086_2_0" slope="0.00"/>
        <vehicle id="15" x="1659.23" y="4136.24" angle="282.66" type="DEFAULT_VEHTYPE" speed="2.55" pos="7.65" lane="399725118#1_0" slope="0.00"/>
        <vehicle id="16" x="1220.79" y="3844.53" angle="86.39" type="DEFAULT_VEHTYPE" speed="0.00" pos="5.10" lane="149723960#1_0" slope="0.00"/>
        <vehicle id="2" x="2081.61" y="3582.69" angle="69.23" type="DEFAULT_VEHTYPE" speed="1.67" pos="34.82" lane="370526836_0" slope="0.00"/>
        <vehicle id="3" x="2305.47" y="4560.75" angle="233.18" type="DEFAULT_VEHTYPE" speed="5.11" pos="5.23" lane="-399732919#1_0" slope="0.00"/>
        <vehicle id="4" x="1564.35" y="4429.31" angle="231.89" type="DEFAULT_VEHTYPE" speed="13.36" pos="10.42" lane="-399736150#1_0" slope="0.00"/>
        <vehicle id="5" x="2555.43" y="3672.78" angle="290.59" type="DEFAULT_VEHTYPE" speed="19.94" pos="75.12" lane="-399723463#10_0" slope="0.00"/>
        <vehicle id="6" x="2274.20" y="3676.07" angle="320.09" type="DEFAULT_VEHTYPE" speed="7.50" pos="13.00" lane=":1626737488_4_0" slope="0.00"/>
        <vehicle id="7" x="1695.25" y="3652.67" angle="74.56" type="DEFAULT_VEHTYPE" speed="11.08" pos="85.28" lane="321434800#0_0" slope="0.00"/>
        <vehicle id="8" x="2462.02" y="3391.17" angle="329.12" type="DEFAULT_VEHTYPE" speed="12.14" pos="70.35" lane="-370526839#3_0" slope="0.00"/>
        <vehicle id="9" x="1927.33" y="4217.94" angle="36.88" type="DEFAULT_VEHTYPE" speed="5.65" pos="5.15" lane=":4024319753_4_0" slope="0.00"/>
    </timestep>
    <timestep time="17.00">
        <vehicle id="0" x="1740.36" y="3939.95" angle="87.76" type="DEFAULT_VEHTYPE" speed="14.63" pos="16.66" lane="399723461_0" slope="0.00"/>
        <vehicle id="1" x="1775.96" y="4130.56" angle="234.40" type="DEFAULT_VEHTYPE" speed="6.82" pos="9.53" lane=":3278391978_0_0" slope="0.00"/>
        <vehicle id="10" x="1726.09" y="4311.99" angle="293.21" type="DEFAULT_VEHTYPE" speed="8.47" pos="6.62" lane="-321124243#3_0" slope="0.00"/>
        <vehicle id="11" x="1822.05" y="4781.15" angle="276.56" type="DEFAULT_VEHTYPE" speed="11.30" pos="48.41" lane="-399728995#0_0" slope="0.00"/>
        <vehicle id="12" x="1541.52" y="4452.18" angle="273.34" type="DEFAULT_VEHTYPE" speed="9.36" pos="31.97" lane="399736150#2_0" slope="0.00"/>
        <vehicle id="13" x="1859.23" y="4665.99" angle="308.71" type="DEFAULT_VEHTYPE" speed="8.51" pos="1.91" lane="-321121533#3_0" slope="0.00"/>
        <vehicle id="14" x="1990.68" y="4769.40" angle="230.20" type="DEFAULT_VEHTYPE" speed="5.24" pos="4.67" lane=":4024231086_4_0" slope="0.00"/>
        <vehicle id="15" x="1654.51" y="4138.10" angle="291.43" type="DEFAULT_VEHTYPE" speed="5.08" pos="12.73" lane="399725118#1_0" slope="0.00"/>
        <vehicle id="16" x="1222.76" y="3844.66" angle="86.39" type="DEFAULT_VEHTYPE" speed="1.98" pos="7.08" lane="149723960#1_0" slope="0.00"/>
        <vehicle id="17" x="2183.25" y="4008.48" angle="332.61" type="DEFAULT_VEHTYPE" speed="0.00" pos="0.20" lane="-399732933#1_0" slope="0.00"/>
        <vehicle id="2" x="2083.19" y="3583.29" angle="69.23" type="DEFAULT_VEHTYPE" speed="1.69" pos="36.50" lane="370526836_0" slope="0.00"/>
        <vehicle id="3" x="2299.49" y="4556.27" angle="233.18" type="DEFAULT_VEHTYPE" speed="7.47" pos="12.70" lane="-399732919#1_0" slope="0.00"/>
        <vehicle id="4" x="1553.12" y="4421.58" angle="235.47" type="DEFAULT_VEHTYPE" speed="13.63" pos="24.05" lane="-399736150#1_0" slope="0.00"/>
        <vehicle id="5" x="2533.87" y="3678.21" angle="271.06" type="DEFAULT_VEHTYPE" speed="22.52" pos="97.64" lane="-399723463#10_0" slope="0.00"/>
        <vehicle id="6" x="2268.43" y="3680.24" angle="305.84" type="DEFAULT_VEHTYPE" speed="7.11" pos="7.11" lane="-399723463#6_0" slope="0.00"/>
        <vehicle id="7" x="1706.83" y="3655.64" angle="75.63" type="DEFAULT_VEHTYPE" speed="11.95" pos="97.23" lane="321434800#0_0" slope="0.00"/>
        <vehicle id="8" x="2455.99" y="3401.26" angle="329.12" type="DEFAULT_VEHTYPE" speed="11.75" pos="82.10" lane="-370526839#3_0" slope="0.00"/>
        <vehicle id="9" x="1932.85" y="4219.13" angle="79.57" type="DEFAULT_VEHTYPE" speed="5.67" pos="2.71" lane="399741781_0" slope="0.00"/>
    </timestep>
    <timestep time="18.00">
        <vehicle id="0" x="1754.63" y="3940.51" angle="87.76" type="DEFAULT_VEHTYPE" speed="14.27" pos="30.93" lane="399723461_0" slope="0.00"/>
        <vehicle id="1" x="1768.53" y="4125.94" angle="238.86" type="DEFAULT_VEHTYPE" speed="8.76" pos="3.89" lane="-321121521#0_0" slope="0.00"/>
        <vehicle id="10" x="1716.98" y="4315.89" angle="293.20" type="DEFAULT_VEHTYPE" speed="9.91" pos="3.54" lane=":4024261785_1_0" slope="0.00"/>
        <vehicle id="11" x="1808.63" y="4782.70" angle="276.56" type="DEFAULT_VEHTYPE" speed="13.51" pos="61.93" lane="-399728995#0_0" slope="0.00"/>
        <vehicle id="12" x="1530.27" y="4452.84" angle="273.34" type="DEFAULT_VEHTYPE" speed="11.26" pos="43.24" lane="399736150#2_0" slope="0.00"/>
        <vehicle id="13" x="1852.20" y="4671.70" angle="309.07" type="DEFAULT_VEHTYPE" speed="9.05" pos="10.96" lane="-321121533#3_0" slope="0.00"/>
        <vehicle id="14" x="1988.63" y="4764.29" angle="201.67" type="DEFAULT_VEHTYPE" speed="5.52" pos="3.39" lane="399726597#6_0" slope="0.00"/>
        <vehicle id="15" x="1647.92" y="4140.69" angle="291.43" type="DEFAULT_VEHTYPE" speed="7.07" pos="19.81" lane="399725118#1_0" slope="0.00"/>
        <vehicle id="16" x="1226.43" y="3844.89" angle="86.39" type="DEFAULT_VEHTYPE" speed="3.67" pos="10.75" lane="149723960#1_0" slope="0.00"/>
        <vehicle id="17" x="2182.38" y="4010.80" angle="334.35" type="DEFAULT_VEHTYPE" speed="2.55" pos="2.55" lane=":4024300865_3_0" slope="0.00"/>
        <vehicle id="18" x="1987.40" y="4483.22" angle="181.36" type="DEFAULT_VEHTYPE" speed="0.00" pos="5.10" lane="399725893#1_0" slope="0.00"/>
        <vehicle id="2" x="2085.56" y="3584.19" angle="69.23" type="DEFAULT_VEHTYPE" speed="2.53" pos="39.04" lane="370526836_0" slope="0.00"/>
        <vehicle id="3" x="2290.81" y="4551.31" angle="245.14" type="DEFAULT_VEHTYPE" speed="10.05" pos="22.75" lane="-399732919#1_0" slope="0.00"/>
        <vehicle id="4" x="1542.05" y="4413.97" angle="235.47" type="DEFAULT_VEHTYPE" speed="13.43" pos="37.49" lane="-399736150#1_0" slope="0.00"/>
        <vehicle id="5" x="2511.30" y="3678.63" angle="271.06" type="DEFAULT_VEHTYPE" speed="22.58" pos="120.22" lane="-399723463#10_0" slope="0.00"/>
        <vehicle id="6" x="2260.84" y="3685.72" angle="305.84" type="DEFAULT_VEHTYPE" speed="9.36" pos="16.48" lane="-399723463#6_0" slope="0.00"/>
        <vehicle id="7" x="1718.23" y="3658.56" angle="75.63" type="DEFAULT_VEHTYPE" speed="11.77" pos="109.00" lane="321434800#0_0" slope="0.00"/>
        <vehicle id="8" x="2449.48" y="3412.15" angle="329.12" type="DEFAULT_VEHTYPE" speed="12.69" pos="94.78" lane="-370526839#3_0" slope="0.00"/>
        <vehicle id="9" x="1940.49" y="4220.19" angle="82.14" type="DEFAULT_VEHTYPE" speed="7.72" pos="10.43" lane="399741781_0" slope="0.00"/>
    </timestep>
    <timestep time="19.00">
        <vehicle id="0" x="1767.99" y="3942.46" angle="81.57" type="DEFAULT_VEHTYPE" speed="13.50" pos="44.43" lane="399723461_0" slope="0.00"/>
        <vehicle id="1" x="1759.53" y="4120.56" angle="239.14" type="DEFAULT_VEHTYPE" speed="10.48" pos="14.37" lane="-321121521#0_0" slope="0.00"/>
        <vehicle id="10" x="1706.65" y="4320.32" angle="293.19" type="DEFAULT_VEHTYPE" speed="11.24" pos="14.78" lane=":4024261785_1_0" slope="0.00"/>